/*--------------------------------*- C++ -*----------------------------------*\
| =========                 |                                                 |
| \\      /  F ield         | OpenFOAM: The Open Source CFD Toolbox           |
|  \\    /   O peration     | Version:  v2006                                 |
|   \\  /    A nd           | Website:  www.openfoam.com                      |
|    \\/     M anipulation  |                                                 |
\*---------------------------------------------------------------------------*/
FoamFile
{
    version     2.0;
    format      ascii;
    class       volScalarField;
    location    "0";
    object      Q;
}
// * * * * * * * * * * * * * * * * * * * * * * * * * * * * * * * * * * * * * //

dimensions      [0 0 -2 0 0 0 0];


internalField   nonuniform List<scalar> 
32448
(
-4.588e-05
-6.82482e-05
-7.36258e-05
-3.32242e-05
-2.20885e-05
-4.37356e-05
-1.20208e-05
-1.28251e-06
-1.04154e-05
-4.21052e-09
2.30815e-06
5.58958e-06
-4.21339e-06
-1.34206e-05
-5.09659e-06
-2.21828e-05
-3.9255e-05
-3.62141e-05
-4.3386e-05
-6.00609e-05
-6.95345e-05
-5.54027e-05
-6.36517e-05
-8.55392e-05
-5.11938e-05
-4.7923e-05
-7.48534e-05
-3.32242e-05
-2.20885e-05
-4.37356e-05
-1.20208e-05
-1.28251e-06
-1.04154e-05
-4.21052e-09
2.30815e-06
5.58958e-06
-4.21339e-06
-1.34206e-05
-5.09659e-06
-2.21828e-05
-3.9255e-05
-3.62141e-05
-4.3386e-05
-6.00609e-05
-6.95345e-05
-5.54027e-05
-6.36517e-05
-8.55392e-05
-5.76685e-05
-5.87114e-05
-8.31674e-05
-5.37041e-05
-4.50588e-05
-6.01689e-05
-3.42946e-05
-2.1851e-05
-2.93116e-05
-1.13195e-05
-2.68172e-06
-3.63216e-06
1.76361e-06
1.21938e-06
1.82627e-06
-2.70943e-06
-1.2433e-05
-1.61334e-05
-2.21187e-05
-3.56409e-05
-4.6991e-05
-4.50939e-05
-5.48103e-05
-7.26703e-05
-5.81771e-05
-5.87114e-05
-7.81285e-05
-5.37041e-05
-4.50588e-05
-6.01689e-05
-3.42946e-05
-2.1851e-05
-2.93116e-05
-1.13195e-05
-2.68172e-06
-3.63216e-06
1.76361e-06
1.21938e-06
1.82627e-06
-2.70943e-06
-1.2433e-05
-1.61334e-05
-2.21187e-05
-3.56409e-05
-4.6991e-05
-4.50939e-05
-5.48103e-05
-7.26703e-05
-5.45824e-05
-3.96513e-05
-6.716e-05
-2.59529e-05
-4.08334e-05
-4.3052e-05
-7.32572e-06
-1.8401e-05
-1.88852e-05
1.33612e-06
-2.35864e-06
-1.79683e-06
-5.04126e-06
-2.10344e-06
-1.79682e-06
-2.27222e-05
-1.77847e-05
-1.88853e-05
-4.13492e-05
-4.02171e-05
-4.30519e-05
-5.00107e-05
-5.62591e-05
-6.01404e-05
-4.36333e-05
-5.65144e-05
-6.01404e-05
-2.59529e-05
-4.08334e-05
-4.3052e-05
-7.32572e-06
-1.8401e-05
-1.88852e-05
1.33612e-06
-2.35864e-06
-1.79683e-06
-5.04126e-06
-2.10344e-06
-1.79682e-06
-2.27222e-05
-1.77847e-05
-1.88853e-05
-4.13492e-05
-4.02171e-05
-4.30519e-05
-5.00107e-05
-5.62591e-05
-6.01404e-05
-4.43112e-05
-1.67993e-05
-3.75827e-05
-1.4468e-05
-4.38664e-05
-3.45696e-05
-5.62891e-06
-2.46381e-05
-1.6905e-05
-2.57687e-07
-5.6938e-06
-2.11156e-06
-1.50055e-06
1.86903e-06
1.14498e-06
-8.62943e-06
-6.3798e-06
-9.04318e-06
-1.74684e-05
-2.56081e-05
-2.67076e-05
-2.28386e-05
-4.45526e-05
-4.15015e-05
-2.15955e-05
-5.21156e-05
-4.47571e-05
-1.4468e-05
-4.38664e-05
-3.45696e-05
-5.62891e-06
-2.46381e-05
-1.6905e-05
-2.57687e-07
-5.6938e-06
-2.11156e-06
-1.50055e-06
1.86903e-06
1.14498e-06
-8.62943e-06
-6.3798e-06
-9.04318e-06
-1.74684e-05
-2.56081e-05
-2.67076e-05
-2.28386e-05
-4.45526e-05
-4.15015e-05
-2.85199e-05
-1.77211e-05
-2.30915e-05
-2.29916e-05
-7.35688e-06
-3.71413e-05
-1.57528e-05
-2.07856e-07
-1.993e-05
-5.75125e-06
8.52984e-07
-2.9477e-06
1.15437e-06
-4.79578e-06
3.85772e-06
9.18813e-07
-1.38452e-05
-3.50027e-06
-6.31998e-06
-2.09941e-05
-2.07117e-05
-1.6322e-05
-2.20555e-05
-3.76939e-05
-2.32274e-05
-1.64067e-05
-4.45003e-05
-2.29916e-05
-7.35688e-06
-3.71413e-05
-1.57528e-05
-2.07856e-07
-1.993e-05
-5.75125e-06
8.52984e-07
-2.9477e-06
1.15437e-06
-4.79578e-06
3.85772e-06
9.18813e-07
-1.38452e-05
-3.50027e-06
-6.31998e-06
-2.09941e-05
-2.07117e-05
-1.6322e-05
-2.20555e-05
-3.76939e-05
-0.00026416
-1.65746e-05
-4.41205e-06
-2.5501e-05
-0.000170085
-4.03254e-06
-1.787e-05
-6.68775e-05
-1.84875e-06
-5.6115e-06
-3.99455e-06
-2.51246e-07
4.09355e-06
-1.95903e-05
-2.04478e-07
5.56005e-06
-0.000104961
-2.45202e-06
-2.07089e-06
-0.0002101
-5.67687e-06
-1.43296e-05
-0.000273417
-7.9917e-06
-2.40335e-05
-0.00025782
-8.03686e-06
-2.5501e-05
-0.000172449
-5.78965e-06
-1.787e-05
-6.73104e-05
-2.56471e-06
-5.6115e-06
-3.99455e-06
-2.51246e-07
4.09355e-06
-1.8594e-05
-4.96601e-08
5.56005e-06
-0.000104961
-2.45202e-06
-2.07089e-06
-0.0002101
-5.67687e-06
-1.43296e-05
-0.000273417
-7.9917e-06
5.08439e-06
-2.08116e-05
-0.000271906
-2.5501e-05
-0.000170085
-4.03254e-06
-1.787e-05
-6.73104e-05
-2.56471e-06
-5.28241e-06
-1.23418e-07
-6.84906e-06
4.09355e-06
-1.95903e-05
-2.04478e-07
5.56005e-06
-0.000104961
-2.45202e-06
-2.07089e-06
-0.0002101
-5.67687e-06
-1.43296e-05
-0.000273417
-7.9917e-06
-2.40335e-05
-0.00025782
-8.03686e-06
-2.5501e-05
-0.000172449
-5.78965e-06
-1.787e-05
-6.73104e-05
-2.56471e-06
-5.6115e-06
-4.12789e-06
-1.98971e-07
4.09355e-06
-1.95903e-05
-2.04478e-07
5.56005e-06
-0.000101802
-1.4885e-06
-2.07089e-06
-0.0002101
-5.67687e-06
-1.43296e-05
-0.000273417
-7.9917e-06
5.08439e-06
-2.08116e-05
-0.000271906
-2.5501e-05
-0.000170085
-4.03254e-06
-1.80822e-05
6.03552e-07
-8.15467e-05
-5.28241e-06
-1.23418e-07
-6.84906e-06
3.41096e-06
1.75669e-07
-1.21682e-05
2.9054e-06
9.41119e-07
-9.41373e-05
-6.50302e-06
1.88392e-06
-0.000204845
-1.9303e-05
2.45109e-06
-0.00027944
-2.79953e-05
2.31232e-06
-0.000274223
-2.74907e-05
1.54639e-06
-0.000192254
-1.80822e-05
6.03552e-07
-8.15467e-05
-5.6115e-06
-4.12789e-06
-1.98971e-07
3.41096e-06
1.75669e-07
-1.21682e-05
5.56005e-06
-0.000101802
-1.4885e-06
-6.50302e-06
1.88392e-06
-0.000204845
-1.9303e-05
2.45109e-06
-0.00027944
-0.00026416
-1.65746e-05
-4.41205e-06
-2.5501e-05
-0.000170085
-4.03254e-06
-1.787e-05
-6.68775e-05
-1.84875e-06
-5.28241e-06
3.58214e-08
-6.95288e-06
3.41096e-06
1.75669e-07
-1.21682e-05
2.9054e-06
9.41119e-07
-9.41373e-05
-6.50302e-06
1.88392e-06
-0.000204845
-1.9303e-05
2.45109e-06
-0.00027944
-2.79953e-05
2.31232e-06
-0.000274223
-2.74907e-05
1.54639e-06
-0.000192254
-1.80822e-05
6.03552e-07
-8.15467e-05
-5.28241e-06
3.58214e-08
-6.95288e-06
4.09355e-06
-1.8594e-05
-4.96601e-08
2.9054e-06
9.41119e-07
-9.41373e-05
-6.50302e-06
1.88392e-06
-0.000204845
-1.9303e-05
2.45109e-06
-0.00027944
-7.48215e-05
-7.6984e-05
-0.000117696
-6.82706e-05
-6.12012e-05
-8.34494e-05
-3.94531e-05
-2.62627e-05
-4.47134e-05
-9.58043e-06
-2.32993e-06
-9.11377e-06
3.84837e-06
-3.42251e-06
2.49624e-06
-7.03297e-06
-2.89002e-05
-1.66845e-05
-3.58503e-05
-6.38389e-05
-5.54201e-05
-6.5723e-05
-8.77718e-05
-9.10202e-05
-7.91519e-05
-8.66791e-05
-0.00010263
-6.82706e-05
-6.12012e-05
-8.34494e-05
-3.94531e-05
-2.62627e-05
-4.47134e-05
-9.58043e-06
-2.32993e-06
-9.11377e-06
3.84837e-06
-3.42251e-06
2.49624e-06
-7.03297e-06
-2.89002e-05
-1.66845e-05
-3.58503e-05
-6.38389e-05
-5.54201e-05
-6.5723e-05
-8.77718e-05
-9.10202e-05
-2.78129e-05
-4.9422e-05
-5.30865e-05
-3.21123e-05
-5.03822e-05
-4.27798e-05
-2.23065e-05
-3.02496e-05
-3.04748e-05
-8.29037e-06
-5.23347e-06
-1.02087e-05
1.7259e-06
1.00118e-05
6.14657e-06
1.87492e-06
6.55564e-06
9.01039e-06
-7.93105e-06
-1.3577e-05
-3.29432e-06
-2.19472e-05
-3.85932e-05
-2.35605e-05
-3.19629e-05
-5.38379e-05
-3.99162e-05
-3.21123e-05
-5.03822e-05
-4.27798e-05
-2.23065e-05
-3.02496e-05
-3.04748e-05
-8.29037e-06
-5.23347e-06
-1.02087e-05
1.7259e-06
1.00118e-05
6.14657e-06
1.87492e-06
6.55564e-06
9.01039e-06
-7.93105e-06
-1.3577e-05
-3.29432e-06
-2.19472e-05
-3.85932e-05
-2.35605e-05
-3.52424e-05
-5.38379e-05
-3.99162e-05
-3.21123e-05
-5.03822e-05
-4.27798e-05
-2.23065e-05
-3.02496e-05
-3.04748e-05
-8.29037e-06
-5.23347e-06
-1.02087e-05
1.7259e-06
1.00118e-05
6.14657e-06
1.87492e-06
6.55564e-06
9.01039e-06
-7.93105e-06
-1.3577e-05
-3.29432e-06
-2.19472e-05
-3.85932e-05
-2.35605e-05
-3.19629e-05
-5.38379e-05
-3.99162e-05
-3.21123e-05
-5.03822e-05
-4.27798e-05
-2.23065e-05
-3.02496e-05
-3.04748e-05
-8.29037e-06
-5.23347e-06
-1.02087e-05
1.7259e-06
1.00118e-05
6.14657e-06
1.87492e-06
6.55564e-06
9.01039e-06
-7.93105e-06
-1.3577e-05
-3.29432e-06
-2.19472e-05
-3.85932e-05
-2.35605e-05
-5.9248e-06
1.4156e-05
-9.25041e-06
1.18308e-06
2.53653e-05
1.43496e-05
1.04431e-05
1.98682e-05
1.85613e-05
8.44029e-06
4.41717e-06
8.78353e-06
-3.65246e-06
-1.1937e-05
-9.25572e-06
-1.87512e-05
-1.9614e-05
-2.49895e-05
-2.80117e-05
-1.41173e-05
-2.92016e-05
-2.60089e-05
1.33423e-06
-1.94235e-05
-1.39166e-05
1.76887e-05
-1.38425e-06
1.18308e-06
2.53653e-05
1.43496e-05
1.04431e-05
1.98682e-05
1.85613e-05
8.44029e-06
4.41717e-06
8.78353e-06
-3.65246e-06
-1.1937e-05
-9.25572e-06
-1.87512e-05
-1.9614e-05
-2.49895e-05
-2.80117e-05
-1.41173e-05
-2.92016e-05
-2.60089e-05
1.33423e-06
-1.94235e-05
-3.19629e-05
-5.38379e-05
-3.99162e-05
-3.21123e-05
-5.03822e-05
-4.27798e-05
-2.23065e-05
-3.02496e-05
-3.04748e-05
-8.29037e-06
-5.23347e-06
-1.02087e-05
1.7259e-06
1.00118e-05
6.14657e-06
1.87492e-06
6.55564e-06
9.01039e-06
-7.93105e-06
-1.3577e-05
-3.29432e-06
-2.19472e-05
-3.85932e-05
-2.35605e-05
-3.19629e-05
-5.38379e-05
-3.99162e-05
-3.21123e-05
-5.03822e-05
-4.27798e-05
-2.23065e-05
-3.02496e-05
-3.04748e-05
-8.29037e-06
-5.23347e-06
-1.02087e-05
1.7259e-06
1.00118e-05
6.14657e-06
1.87492e-06
6.55564e-06
9.01039e-06
-7.93105e-06
-1.3577e-05
-3.29432e-06
-2.19472e-05
-3.85932e-05
-2.35605e-05
-1.39166e-05
1.76887e-05
-1.38425e-06
1.18308e-06
2.53653e-05
1.43496e-05
1.04431e-05
1.98682e-05
1.85613e-05
8.44029e-06
4.41717e-06
8.78353e-06
-3.65246e-06
-1.1937e-05
-9.25572e-06
-1.87512e-05
-1.9614e-05
-2.49895e-05
-2.80117e-05
-1.41173e-05
-2.92016e-05
-2.60089e-05
1.33423e-06
-1.94235e-05
-1.39166e-05
1.76887e-05
-1.38425e-06
1.18308e-06
2.53653e-05
1.43496e-05
1.04431e-05
1.98682e-05
1.85613e-05
8.44029e-06
4.41717e-06
8.78353e-06
-3.65246e-06
-1.1937e-05
-9.25572e-06
-1.87512e-05
-1.9614e-05
-2.49895e-05
-2.80117e-05
-1.41173e-05
-2.92016e-05
-2.60089e-05
1.33423e-06
-1.94235e-05
-3.19629e-05
-5.38379e-05
-3.99162e-05
-3.21123e-05
-5.03822e-05
-4.27798e-05
-2.23065e-05
-3.02496e-05
-3.04748e-05
-8.29037e-06
-5.23347e-06
-1.02087e-05
1.7259e-06
1.00118e-05
6.14657e-06
1.87492e-06
6.55564e-06
9.01039e-06
-7.93105e-06
-1.3577e-05
-3.29432e-06
-2.19472e-05
-3.85932e-05
-2.35605e-05
-3.19629e-05
-5.38379e-05
-3.99162e-05
-3.21123e-05
-5.03822e-05
-4.27798e-05
-2.23065e-05
-3.02496e-05
-3.04748e-05
-8.29037e-06
-5.23347e-06
-1.02087e-05
1.7259e-06
1.00118e-05
6.14657e-06
1.87492e-06
6.55564e-06
9.01039e-06
-7.93105e-06
-1.3577e-05
-3.29432e-06
-2.19472e-05
-3.85932e-05
-2.35605e-05
-1.39166e-05
1.76887e-05
-1.38425e-06
1.18308e-06
2.53653e-05
1.43496e-05
1.04431e-05
1.98682e-05
1.85613e-05
8.44029e-06
4.41717e-06
8.78353e-06
-3.65246e-06
-1.1937e-05
-9.25572e-06
-1.87512e-05
-1.9614e-05
-2.49895e-05
-2.80117e-05
-1.41173e-05
-2.92016e-05
-2.60089e-05
1.33423e-06
-1.94235e-05
-1.39166e-05
1.76887e-05
-1.38425e-06
1.18308e-06
2.53653e-05
1.43496e-05
1.04431e-05
1.98682e-05
1.85613e-05
8.44029e-06
4.41717e-06
8.78353e-06
-3.65246e-06
-1.1937e-05
-9.25572e-06
-1.87512e-05
-1.9614e-05
-2.49895e-05
-2.80117e-05
-1.41173e-05
-2.92016e-05
-2.60089e-05
1.33423e-06
-1.94235e-05
-1.39166e-05
1.76887e-05
-1.38425e-06
1.18308e-06
2.53653e-05
1.43496e-05
1.04431e-05
1.98682e-05
1.85613e-05
8.44029e-06
4.41717e-06
8.78353e-06
-3.65246e-06
-1.1937e-05
-9.25572e-06
-1.87512e-05
-1.9614e-05
-2.49895e-05
-2.80117e-05
-1.41173e-05
-2.92016e-05
-2.60089e-05
1.33423e-06
-1.94235e-05
-1.39166e-05
1.76887e-05
-1.38425e-06
1.18308e-06
2.53653e-05
1.43496e-05
1.04431e-05
1.98682e-05
1.85613e-05
8.44029e-06
4.41717e-06
8.78353e-06
-3.65246e-06
-1.1937e-05
-9.25572e-06
-1.87512e-05
-1.9614e-05
-2.49895e-05
-2.80117e-05
-1.41173e-05
-2.92016e-05
-2.60089e-05
1.33423e-06
-1.94235e-05
-2.32315e-05
-3.01748e-06
-1.65713e-05
-8.40667e-06
-1.11491e-05
2.17216e-06
1.48494e-06
2.76714e-06
6.9841e-06
2.93607e-06
2.70775e-06
2.40784e-06
-4.9037e-06
-1.39155e-06
-8.87567e-06
-1.74418e-05
-1.35031e-05
-2.02568e-05
-2.73337e-05
-2.01585e-05
-2.50686e-05
-2.87845e-05
-2.00986e-05
-2.0492e-05
-2.09448e-05
-1.68391e-05
-9.20803e-06
-8.40667e-06
-3.88818e-06
2.17216e-06
1.48494e-06
-4.26776e-06
6.9841e-06
2.93607e-06
2.70775e-06
2.40784e-06
-4.9037e-06
-4.03159e-06
-8.87567e-06
-1.74418e-05
-1.35031e-05
-2.02568e-05
-2.73337e-05
-2.01585e-05
-2.50686e-05
-2.87845e-05
-2.00986e-05
-2.0492e-05
-2.09448e-05
-1.68391e-05
-9.20803e-06
-8.40667e-06
-3.88818e-06
2.17216e-06
1.48494e-06
2.76714e-06
6.9841e-06
2.93607e-06
2.70775e-06
2.40784e-06
-4.9037e-06
-4.03159e-06
-8.87567e-06
-1.74418e-05
-1.35031e-05
-2.02568e-05
-2.73337e-05
-2.01585e-05
-2.50686e-05
-2.87845e-05
-2.00986e-05
-2.0492e-05
-2.09448e-05
-1.33595e-05
-9.20803e-06
-8.40667e-06
-3.88818e-06
2.17216e-06
1.48494e-06
2.76714e-06
6.9841e-06
2.93607e-06
2.70775e-06
2.40784e-06
-4.9037e-06
-4.03159e-06
-8.87567e-06
-1.74418e-05
-1.35031e-05
-2.02568e-05
-2.73337e-05
-2.01585e-05
-2.50686e-05
-2.87845e-05
-2.00986e-05
-2.0492e-05
-2.04865e-05
-1.68391e-05
-9.20803e-06
-8.40667e-06
-3.88818e-06
2.17216e-06
1.48494e-06
-4.26776e-06
6.9841e-06
2.93607e-06
-2.25969e-07
2.40784e-06
-4.9037e-06
-1.39155e-06
-8.87567e-06
-1.74418e-05
-7.08167e-06
-2.02568e-05
-2.73337e-05
-1.39632e-05
-2.50686e-05
-2.87845e-05
-1.80044e-05
-2.0492e-05
-2.09448e-05
-1.33595e-05
-9.20803e-06
-8.40667e-06
-3.88818e-06
2.17216e-06
1.48494e-06
-4.26776e-06
6.9841e-06
2.93607e-06
-2.25969e-07
2.40784e-06
-4.9037e-06
-4.03159e-06
-8.87567e-06
-1.74418e-05
-1.35031e-05
-2.02568e-05
-2.73337e-05
-2.01585e-05
-2.50686e-05
-2.87845e-05
-2.00986e-05
-2.0492e-05
-2.04865e-05
-1.68391e-05
-1.2043e-05
-8.40667e-06
-3.88818e-06
2.17216e-06
1.48494e-06
2.76714e-06
6.9841e-06
2.93607e-06
-2.25969e-07
2.40784e-06
-4.9037e-06
-1.39155e-06
-8.87567e-06
-1.74418e-05
-7.08167e-06
-2.02568e-05
-2.73337e-05
-1.39632e-05
-2.50686e-05
-2.87845e-05
-2.00986e-05
-2.0492e-05
-2.09448e-05
-1.33595e-05
-9.20803e-06
-8.40667e-06
-3.88818e-06
2.17216e-06
1.48494e-06
2.76714e-06
6.9841e-06
2.93607e-06
2.70775e-06
2.40784e-06
-4.9037e-06
-4.03159e-06
-8.87567e-06
-1.74418e-05
-1.35031e-05
-2.02568e-05
-2.73337e-05
-2.01585e-05
-2.50686e-05
-2.87845e-05
-2.00986e-05
-2.0492e-05
-2.08176e-05
-3.223e-06
-1.73001e-05
-7.58674e-06
-1.1501e-05
1.63346e-06
1.11904e-06
-4.22764e-06
6.53639e-06
2.50623e-06
-1.65946e-07
2.3042e-06
-4.23791e-06
-1.69528e-06
-8.58406e-06
-1.51628e-05
-7.91966e-06
-1.97503e-05
-2.38685e-05
-1.51931e-05
-2.46533e-05
-2.52557e-05
-1.92554e-05
-2.04218e-05
-1.85116e-05
-1.77258e-05
-9.5337e-06
-7.58674e-06
-1.1501e-05
1.63346e-06
1.11904e-06
-4.22764e-06
6.53639e-06
2.50623e-06
-1.65946e-07
2.3042e-06
-4.23791e-06
-1.69528e-06
-8.58406e-06
-1.51628e-05
-7.91966e-06
-1.97503e-05
-2.38685e-05
-1.51931e-05
-2.46533e-05
-2.52557e-05
-1.92554e-05
-2.04218e-05
-2.46948e-05
-3.223e-06
-2.11371e-05
-7.58674e-06
-3.83448e-06
1.63346e-06
1.11904e-06
3.23013e-06
6.53639e-06
2.50623e-06
-1.65946e-07
2.3042e-06
-4.23791e-06
-1.69528e-06
-8.58406e-06
-1.51628e-05
-7.91966e-06
-1.97503e-05
-2.38685e-05
-1.51931e-05
-2.46533e-05
-2.52557e-05
-1.92554e-05
-2.04218e-05
-1.85116e-05
-1.40603e-05
-9.5337e-06
-7.58674e-06
-3.83448e-06
1.63346e-06
1.11904e-06
-4.22764e-06
6.53639e-06
2.50623e-06
-1.65946e-07
2.3042e-06
-4.23791e-06
-1.69528e-06
-8.58406e-06
-1.51628e-05
-7.91966e-06
-1.97503e-05
-2.38685e-05
-1.51931e-05
-2.46533e-05
-2.52557e-05
-1.92554e-05
-2.04218e-05
-2.08176e-05
-3.223e-06
-2.11371e-05
-7.58674e-06
-3.83448e-06
1.63346e-06
1.11904e-06
-4.22764e-06
6.53639e-06
2.50623e-06
-1.65946e-07
2.3042e-06
-4.23791e-06
-4.40082e-06
-8.58406e-06
-1.51628e-05
-7.91966e-06
-1.97503e-05
-2.38685e-05
-1.51931e-05
-2.46533e-05
-2.52557e-05
-1.92554e-05
-2.04218e-05
-1.85116e-05
-1.77258e-05
-9.5337e-06
-7.58674e-06
-1.1501e-05
1.63346e-06
1.11904e-06
-4.22764e-06
6.53639e-06
2.50623e-06
-1.65946e-07
2.3042e-06
-4.23791e-06
-1.69528e-06
-8.58406e-06
-1.51628e-05
-1.46262e-05
-1.97503e-05
-2.38685e-05
-1.51931e-05
-2.46533e-05
-2.52557e-05
-2.1457e-05
-2.04218e-05
-1.75934e-05
-2.9488e-06
-3.04418e-05
-7.58674e-06
-1.1501e-05
1.63346e-06
1.11904e-06
3.23013e-06
6.53639e-06
2.50623e-06
2.99555e-06
2.3042e-06
-4.23791e-06
-4.40082e-06
-8.58406e-06
-1.51628e-05
-1.46262e-05
-1.97503e-05
-2.38685e-05
-2.16909e-05
-2.46533e-05
-2.52557e-05
-1.92554e-05
-2.04218e-05
-1.85116e-05
-1.40603e-05
-9.5337e-06
-7.58674e-06
-3.83448e-06
1.63346e-06
1.11904e-06
3.23013e-06
6.53639e-06
2.50623e-06
2.99555e-06
2.3042e-06
-4.23791e-06
-4.40082e-06
-8.58406e-06
-1.51628e-05
-1.46262e-05
-1.97503e-05
-2.38685e-05
-2.16909e-05
-2.46533e-05
-2.52557e-05
-2.1457e-05
-2.04218e-05
-8.74502e-05
-7.7095e-05
-0.000118633
-6.59181e-05
-4.48863e-05
-7.91687e-05
-3.18694e-05
-1.26003e-05
-3.03489e-05
-5.24825e-06
8.50456e-07
-7.71666e-07
-1.64952e-06
-1.24132e-05
-7.76261e-06
-2.31811e-05
-4.46216e-05
-4.72268e-05
-5.72303e-05
-7.69076e-05
-9.6046e-05
-8.38512e-05
-9.03584e-05
-0.000125624
-8.74502e-05
-7.7095e-05
-0.000118633
-6.59181e-05
-4.48863e-05
-7.91687e-05
-3.18694e-05
-1.26003e-05
-3.03489e-05
-5.24825e-06
8.50456e-07
-7.71666e-07
-1.64952e-06
-1.24132e-05
-7.76261e-06
-2.31811e-05
-4.46216e-05
-4.72268e-05
-5.72303e-05
-7.69076e-05
-9.6046e-05
-8.38512e-05
-9.03584e-05
-0.000125624
1.59554e-05
2.53141e-05
2.08812e-05
1.649e-05
2.43396e-05
2.21618e-05
1.17478e-05
1.49564e-05
1.55638e-05
4.5048e-06
2.66003e-06
4.95165e-06
-9.95487e-07
-5.34636e-06
-3.45797e-06
-1.53102e-06
-4.37271e-06
-4.73883e-06
3.21193e-06
5.01046e-06
1.8592e-06
1.04538e-05
1.73076e-05
1.24721e-05
1.59554e-05
2.53141e-05
2.08812e-05
1.649e-05
2.43396e-05
2.21618e-05
1.17478e-05
1.49564e-05
1.55638e-05
4.5048e-06
2.66003e-06
4.95165e-06
-9.95487e-07
-5.34636e-06
-3.45797e-06
-1.53102e-06
-4.37271e-06
-4.73883e-06
3.21193e-06
5.01046e-06
1.8592e-06
1.04538e-05
1.73076e-05
1.24721e-05
1.62936e-05
2.55951e-05
1.62494e-05
1.68286e-05
2.46035e-05
2.22761e-05
1.19806e-05
1.51153e-05
1.56408e-05
4.59036e-06
2.68764e-06
4.97491e-06
-1.0129e-06
-5.39958e-06
-3.47347e-06
-1.5469e-06
-4.40896e-06
-4.75551e-06
3.30112e-06
5.07922e-06
1.87992e-06
1.06903e-05
1.75079e-05
1.25457e-05
1.62936e-05
2.55951e-05
2.09945e-05
1.68286e-05
2.46035e-05
2.22761e-05
1.19806e-05
1.51153e-05
1.56408e-05
4.59036e-06
2.68764e-06
4.97491e-06
-1.0129e-06
-5.39958e-06
-3.47347e-06
-1.5469e-06
-4.40896e-06
-4.75551e-06
3.30112e-06
5.07922e-06
1.87992e-06
1.06903e-05
1.75079e-05
1.25457e-05
1.70967e-05
2.56482e-05
2.20919e-05
1.7489e-05
2.47232e-05
2.33977e-05
1.23452e-05
1.52242e-05
1.64025e-05
4.68152e-06
2.71427e-06
5.20379e-06
-1.01347e-06
-5.47833e-06
-3.63845e-06
-1.40385e-06
-4.55445e-06
-4.94456e-06
3.73931e-06
4.94452e-06
2.05059e-06
1.14017e-05
1.74555e-05
1.32496e-05
1.70967e-05
2.56482e-05
2.20919e-05
1.7489e-05
2.47232e-05
2.33977e-05
1.23452e-05
1.52242e-05
1.64025e-05
4.68152e-06
2.71427e-06
5.20379e-06
-1.01347e-06
-5.47833e-06
-3.63845e-06
-1.40385e-06
-4.55445e-06
-4.94456e-06
3.73931e-06
4.94452e-06
2.05059e-06
1.14017e-05
1.74555e-05
1.32496e-05
1.68742e-05
2.53634e-05
2.20134e-05
1.72669e-05
2.44355e-05
2.32998e-05
1.21923e-05
1.50395e-05
1.63287e-05
4.6254e-06
2.6798e-06
5.18449e-06
-1.00206e-06
-5.40333e-06
-3.60461e-06
-1.39358e-06
-4.47488e-06
-4.89018e-06
3.68027e-06
4.92115e-06
2.08101e-06
1.12488e-05
1.72803e-05
1.32241e-05
1.68742e-05
2.53634e-05
2.20134e-05
1.72669e-05
2.44355e-05
2.32998e-05
1.21923e-05
1.50395e-05
1.63287e-05
4.6254e-06
2.6798e-06
5.18449e-06
-1.00206e-06
-5.40333e-06
-3.60461e-06
-1.39358e-06
-4.47488e-06
-4.89018e-06
3.68027e-06
4.92115e-06
2.08101e-06
1.12488e-05
1.72803e-05
1.32241e-05
1.68046e-06
7.74144e-06
-7.64792e-06
1.43019e-06
-1.21363e-05
-1.3882e-07
-1.63624e-06
-1.01826e-05
-1.7704e-06
-1.85419e-06
-1.821e-06
-6.62606e-07
9.04034e-07
4.57981e-06
2.53572e-06
5.02269e-06
6.70794e-06
5.95108e-06
8.08918e-06
3.31663e-06
7.58262e-06
8.3072e-06
-3.60743e-06
6.47471e-06
5.54882e-06
-1.00076e-05
3.2761e-06
1.43019e-06
-1.29253e-05
-1.3882e-07
-1.63624e-06
-8.74502e-06
-1.7704e-06
-1.85419e-06
-3.5743e-06
-6.62606e-07
9.04034e-07
3.02874e-06
2.53572e-06
5.02269e-06
5.75845e-06
5.95108e-06
8.08918e-06
3.01577e-06
7.58262e-06
8.3072e-06
-3.59266e-06
6.47471e-06
5.54882e-06
-1.00076e-05
3.2761e-06
1.43019e-06
-1.21363e-05
-1.3882e-07
-1.63624e-06
-8.74502e-06
-1.7704e-06
-1.85419e-06
-1.821e-06
-6.62606e-07
9.04034e-07
4.57981e-06
2.53572e-06
5.02269e-06
6.70794e-06
5.95108e-06
8.08918e-06
3.31663e-06
7.58262e-06
8.3072e-06
-3.60743e-06
6.47471e-06
5.54882e-06
-1.00076e-05
3.2761e-06
1.43019e-06
-1.21363e-05
-1.3882e-07
-1.63624e-06
-1.01826e-05
-1.7704e-06
-1.85419e-06
-3.5743e-06
-6.62606e-07
9.04034e-07
3.02874e-06
2.53572e-06
5.02269e-06
5.75845e-06
5.95108e-06
8.08918e-06
3.01577e-06
7.58262e-06
8.3072e-06
-3.59266e-06
6.47471e-06
5.54882e-06
-1.01951e-05
-1.14121e-06
1.43019e-06
-1.21363e-05
-1.3882e-07
-1.63624e-06
-8.74502e-06
-1.7704e-06
-1.85419e-06
-1.821e-06
-6.62606e-07
9.04034e-07
4.57981e-06
2.53572e-06
5.02269e-06
6.70794e-06
5.95108e-06
8.08918e-06
3.31663e-06
7.58262e-06
8.3072e-06
-3.60743e-06
6.47471e-06
5.54882e-06
-1.01951e-05
3.2761e-06
1.43019e-06
-1.29253e-05
-1.3882e-07
-1.63624e-06
-8.74502e-06
-1.7704e-06
-1.85419e-06
-1.821e-06
-6.62606e-07
9.04034e-07
4.57981e-06
2.53572e-06
5.02269e-06
6.70794e-06
5.95108e-06
8.08918e-06
3.01577e-06
7.58262e-06
8.3072e-06
-3.59266e-06
6.47471e-06
5.54882e-06
-1.01951e-05
-1.14121e-06
1.43019e-06
-1.29253e-05
-1.3882e-07
-1.63624e-06
-1.01826e-05
-1.7704e-06
-1.85419e-06
-1.821e-06
-6.62606e-07
9.04034e-07
4.57981e-06
2.53572e-06
5.02269e-06
6.70794e-06
5.95108e-06
8.08918e-06
3.31663e-06
7.58262e-06
8.3072e-06
-3.59266e-06
9.10084e-06
5.54882e-06
-1.01951e-05
-1.14121e-06
1.43019e-06
-1.29253e-05
-9.48535e-06
-1.63624e-06
-1.01826e-05
-1.10442e-05
-1.85419e-06
-3.5743e-06
-4.90443e-06
9.04034e-07
3.02874e-06
5.33759e-06
5.02269e-06
5.75845e-06
1.36823e-05
8.08918e-06
3.31663e-06
1.52412e-05
8.3072e-06
-3.60743e-06
9.10084e-06
-3.84106e-06
-1.59367e-05
-1.42505e-05
-8.0603e-06
-1.54352e-05
-1.75681e-06
-5.51799e-06
-9.76674e-06
-1.23756e-06
-1.68915e-06
-1.79522e-06
-8.59979e-07
1.1835e-06
3.80958e-06
-8.45409e-07
1.41723e-06
3.76439e-06
-1.20237e-06
-1.12493e-06
-1.90405e-06
-1.72174e-06
-4.95399e-06
-9.87654e-06
-2.09862e-06
-7.82647e-06
-1.54807e-05
-2.11484e-06
-8.0603e-06
-1.54352e-05
-1.75681e-06
-5.51799e-06
-9.76674e-06
-1.23756e-06
-1.68915e-06
-1.79522e-06
-8.59979e-07
1.1835e-06
3.80958e-06
-8.45409e-07
1.41723e-06
3.76439e-06
-1.20237e-06
-1.12493e-06
-1.90405e-06
-1.72174e-06
-4.95399e-06
-9.87654e-06
-2.09862e-06
4.78868e-06
-4.78785e-07
-1.14797e-06
1.23186e-06
-1.67696e-06
7.65451e-06
1.54529e-06
-1.93679e-06
5.47024e-06
7.1363e-07
-5.31492e-07
1.63828e-06
-7.75989e-07
1.71576e-06
-1.5969e-06
-2.05096e-06
3.48855e-06
-2.34023e-06
-2.36441e-06
3.74851e-06
-1.56114e-07
-1.53229e-06
2.34323e-06
3.6756e-06
-4.28251e-08
9.62613e-08
6.91049e-06
1.23186e-06
-1.67696e-06
7.65451e-06
1.54529e-06
-1.93679e-06
5.47024e-06
7.1363e-07
-5.31492e-07
1.63828e-06
-7.75989e-07
1.71576e-06
-1.5969e-06
-2.05096e-06
3.48855e-06
-2.34023e-06
-2.36441e-06
3.74851e-06
-1.56114e-07
-1.53229e-06
2.34323e-06
3.6756e-06
-4.51926e-06
-1.1564e-05
-1.41488e-05
-7.58248e-06
-1.14775e-05
-1.69019e-06
-4.95287e-06
-7.18649e-06
-9.64586e-07
-1.43458e-06
-1.30573e-06
-6.9311e-07
9.11534e-07
2.71992e-06
-1.03483e-06
7.11139e-07
2.53227e-06
-1.78955e-06
-1.91836e-06
-1.75871e-06
-2.51516e-06
-5.43716e-06
-7.63968e-06
-2.78585e-06
-7.78281e-06
-1.16649e-05
-2.44448e-06
-7.58248e-06
-1.14775e-05
-1.69019e-06
-4.95287e-06
-7.18649e-06
-9.64586e-07
-1.43458e-06
-1.30573e-06
-6.9311e-07
9.11534e-07
2.71992e-06
-1.03483e-06
7.11139e-07
2.53227e-06
-1.78955e-06
-1.91836e-06
-1.75871e-06
-2.51516e-06
-5.43716e-06
-7.63968e-06
-2.78585e-06
-3.52611e-06
-1.5448e-05
-1.24413e-05
-8.36296e-06
-1.50834e-05
-1.20064e-06
-5.79612e-06
-9.66741e-06
-9.1672e-07
-1.79859e-06
-1.80167e-06
-7.90092e-07
1.28804e-06
3.90606e-06
-8.94908e-07
1.65573e-06
4.11217e-06
-1.16979e-06
-9.10923e-07
-1.30374e-06
-1.45376e-06
-4.90817e-06
-9.16991e-06
-1.57947e-06
-7.99465e-06
-1.48774e-05
-1.47432e-06
-8.36296e-06
-1.50834e-05
-1.20064e-06
-5.79612e-06
-9.66741e-06
-9.1672e-07
-1.79859e-06
-1.80167e-06
-7.90092e-07
1.28804e-06
3.90606e-06
-8.94908e-07
1.65573e-06
4.11217e-06
-1.16979e-06
-9.10923e-07
-1.30374e-06
-1.45376e-06
-4.90817e-06
-9.16991e-06
-1.57947e-06
4.09148e-06
-2.32703e-07
-2.01774e-06
7.32709e-07
-1.10546e-06
6.77922e-06
1.45413e-06
-1.3755e-06
4.99088e-06
7.71601e-07
-3.88292e-07
1.57756e-06
-9.15077e-07
1.27785e-06
-1.46146e-06
-2.61785e-06
2.64694e-06
-2.34597e-06
-3.33926e-06
2.91694e-06
-5.57833e-07
-2.65627e-06
1.92988e-06
2.85561e-06
-9.69891e-07
2.63783e-07
5.89386e-06
7.32709e-07
-1.10546e-06
6.77922e-06
1.45413e-06
-1.3755e-06
4.99088e-06
7.71601e-07
-3.88292e-07
1.57756e-06
-9.15077e-07
1.27785e-06
-1.46146e-06
-2.61785e-06
2.64694e-06
-2.34597e-06
-3.33926e-06
2.91694e-06
-5.57833e-07
-2.65627e-06
1.92988e-06
2.85561e-06
5.22163e-06
-2.71884e-06
4.64768e-07
1.28042e-06
-1.71022e-06
7.46577e-06
1.56153e-06
-1.96377e-06
5.32456e-06
7.12765e-07
-5.37628e-07
1.58786e-06
-7.68679e-07
1.73279e-06
-1.55569e-06
-2.01498e-06
3.51752e-06
-2.2647e-06
-2.29611e-06
3.77131e-06
-1.23866e-07
-1.44701e-06
2.34479e-06
3.61278e-06
3.46318e-08
7.45373e-08
6.75609e-06
1.28042e-06
-1.71022e-06
7.46577e-06
1.56153e-06
-1.96377e-06
5.32456e-06
7.12765e-07
-5.37628e-07
1.58786e-06
-7.68679e-07
1.73279e-06
-1.55569e-06
-2.01498e-06
3.51752e-06
-2.2647e-06
-2.29611e-06
3.77131e-06
-1.23866e-07
-1.44701e-06
2.34479e-06
3.61278e-06
-3.98158e-07
-1.31704e-05
-1.65311e-05
-4.54748e-06
-1.2427e-05
-1.20182e-06
-9.34964e-07
-7.38462e-06
-4.68162e-07
7.06295e-07
-1.26148e-06
-4.91091e-07
-5.85126e-07
2.35563e-06
-1.25719e-06
-4.05274e-06
1.3479e-06
-2.31757e-06
-7.66528e-06
-3.69448e-06
-3.05121e-06
-9.30661e-06
-9.81773e-06
-3.02829e-06
-8.01462e-06
-1.34349e-05
-2.26246e-06
-4.54748e-06
-1.2427e-05
-1.20182e-06
-9.34964e-07
-7.38462e-06
-4.68162e-07
7.06295e-07
-1.26148e-06
-4.91091e-07
-5.85126e-07
2.35563e-06
-1.25719e-06
-4.05274e-06
1.3479e-06
-2.31757e-06
-7.66528e-06
-3.69448e-06
-3.05121e-06
-9.30661e-06
-9.81773e-06
-4.81385e-06
5.10499e-06
-4.22358e-06
5.41721e-07
7.16939e-07
-9.73807e-07
6.89506e-06
1.4903e-06
-1.30847e-06
5.03693e-06
7.98759e-07
-3.7924e-07
1.56418e-06
-9.52606e-07
1.26954e-06
-1.48881e-06
-2.73786e-06
2.67203e-06
-2.33367e-06
-3.51122e-06
3.00682e-06
-4.75562e-07
-2.82007e-06
2.07761e-06
2.99722e-06
-1.06879e-06
4.2872e-07
6.04984e-06
7.16939e-07
-9.73807e-07
6.89506e-06
1.4903e-06
-1.30847e-06
5.03693e-06
7.98759e-07
-3.7924e-07
1.56418e-06
-9.52606e-07
1.26954e-06
-1.48881e-06
-2.73786e-06
2.67203e-06
-2.33367e-06
-3.51122e-06
3.00682e-06
-4.75562e-07
-2.34807e-06
3.73817e-06
7.39746e-07
3.28884e-05
3.58572e-05
2.43119e-05
1.83794e-05
2.73629e-05
1.58132e-05
3.46438e-06
1.31691e-05
3.7537e-06
-3.12062e-06
1.58999e-06
-2.27429e-06
2.48222e-06
-5.91439e-07
1.03451e-05
1.69909e-05
7.90273e-06
2.70549e-05
3.19058e-05
2.20965e-05
3.80664e-05
3.8491e-05
3.36753e-05
3.69309e-05
3.28884e-05
3.58572e-05
2.43119e-05
1.83794e-05
2.73629e-05
7.60076e-06
3.46438e-06
1.31691e-05
-3.41086e-06
-3.12062e-06
1.58999e-06
-2.27429e-06
2.48222e-06
-5.91439e-07
5.19605e-06
1.69909e-05
7.90273e-06
1.78536e-05
3.19058e-05
2.20965e-05
2.9913e-05
3.8491e-05
3.36753e-05
3.69309e-05
3.28884e-05
3.58331e-05
2.42627e-05
1.83794e-05
2.73465e-05
7.56692e-06
3.46438e-06
1.31625e-05
-3.42476e-06
-3.12062e-06
1.58954e-06
-2.2753e-06
2.48222e-06
-5.92995e-07
1.03421e-05
1.69909e-05
7.8935e-06
2.70362e-05
3.19058e-05
2.20774e-05
2.98807e-05
3.8491e-05
3.36509e-05
3.42631e-05
3.28884e-05
3.58331e-05
2.84193e-05
1.83794e-05
2.73465e-05
1.57721e-05
3.46438e-06
1.31625e-05
3.73278e-06
-3.12062e-06
1.58954e-06
-6.48169e-07
2.48222e-06
-5.92995e-07
5.19583e-06
1.69909e-05
7.8935e-06
1.78414e-05
3.19058e-05
2.20774e-05
2.98807e-05
3.8491e-05
3.36509e-05
3.42631e-05
3.28884e-05
3.53889e-05
2.37557e-05
1.83794e-05
2.7009e-05
1.52944e-05
3.46438e-06
1.30011e-05
3.46599e-06
-3.12062e-06
1.5703e-06
-7.09288e-07
2.48222e-06
-5.87119e-07
5.21501e-06
1.69909e-05
7.79268e-06
1.77685e-05
3.19058e-05
2.18006e-05
2.95968e-05
3.8491e-05
3.32315e-05
3.37737e-05
3.28884e-05
3.53889e-05
2.78496e-05
1.83794e-05
2.7009e-05
1.52944e-05
3.46438e-06
1.30011e-05
3.46599e-06
-3.12062e-06
1.5703e-06
-7.09288e-07
2.48222e-06
-5.87119e-07
5.21501e-06
1.69909e-05
7.79268e-06
1.77685e-05
3.19058e-05
2.18006e-05
2.95968e-05
3.8491e-05
3.32315e-05
3.37737e-05
3.28884e-05
3.57774e-05
2.80061e-05
1.83794e-05
2.73337e-05
1.54781e-05
3.46438e-06
1.31755e-05
3.60283e-06
-3.12062e-06
1.59616e-06
-6.63529e-07
2.48222e-06
-6.21189e-07
5.17861e-06
1.69909e-05
7.82248e-06
1.7707e-05
3.19058e-05
2.19806e-05
2.95823e-05
3.8491e-05
3.35603e-05
3.38481e-05
3.28884e-05
3.57774e-05
2.80061e-05
1.83794e-05
2.73337e-05
1.54781e-05
3.46438e-06
1.31755e-05
3.60283e-06
-3.12062e-06
1.59616e-06
-6.63529e-07
2.48222e-06
-6.21189e-07
5.17861e-06
1.69909e-05
7.82248e-06
1.7707e-05
3.19058e-05
2.19806e-05
2.95823e-05
3.8491e-05
3.35603e-05
3.38481e-05
-0.000103461
-9.1999e-05
-0.00010893
-6.96901e-05
-5.59791e-05
-9.48477e-05
-3.63806e-05
-2.25217e-05
-4.08042e-05
-8.70458e-06
-2.17357e-06
-6.70835e-06
-7.41231e-07
-5.17645e-06
-5.1508e-06
-1.92879e-05
-3.14491e-05
-4.44261e-05
-5.2597e-05
-6.49065e-05
-9.84702e-05
-8.11564e-05
-8.59496e-05
-0.000135624
-0.000103461
-9.1999e-05
-0.000113814
-8.11276e-05
-6.39797e-05
-8.53513e-05
-4.18781e-05
-2.67725e-05
-4.09867e-05
-8.70458e-06
-2.17357e-06
-6.70835e-06
-1.0395e-06
-4.59211e-06
-2.596e-06
-2.3373e-05
-3.26115e-05
-3.10585e-05
-6.26221e-05
-6.98186e-05
-7.54232e-05
-9.57954e-05
-9.44173e-05
-0.000109701
-9.85804e-05
-7.87113e-05
-0.000114629
-7.46713e-05
-4.87211e-05
-7.05227e-05
-3.22947e-05
-1.29744e-05
-2.66126e-05
-2.72696e-06
1.19301e-06
1.40821e-06
-3.28832e-06
-1.4518e-05
-9.37009e-06
-3.36502e-05
-5.09042e-05
-4.61378e-05
-7.60263e-05
-8.66509e-05
-9.00481e-05
-0.000105594
-0.000100818
-0.000115378
-0.000105032
-8.51073e-05