/*--------------------------------*- C++ -*----------------------------------*\
| =========                 |                                                 |
| \\      /  F ield         | OpenFOAM: The Open Source CFD Toolbox           |
|  \\    /   O peration     | Version:  v2006                                 |
|   \\  /    A nd           | Website:  www.openfoam.com                      |
|    \\/     M anipulation  |                                                 |
\*---------------------------------------------------------------------------*/
FoamFile
{
    version     2.0;
    format      ascii;
    class       volVectorField;
    location    "0";
    object      U;
}
// * * * * * * * * * * * * * * * * * * * * * * * * * * * * * * * * * * * * * //

dimensions      [0 1 -1 0 0 0 0];


internalField   nonuniform List<vector> 
32448
(
(-0.0061148 0.00377134 0)
(-0.00495266 0.0039369 0)
(-0.00554633 0.0044972 0)
(-0.00541886 0.00334212 0)
(-0.00437137 0.00354449 0)
(-0.00430329 0.00342071 0)
(-0.00389796 0.00240409 0)
(-0.00266575 0.0021615 0)
(-0.00287536 0.00228564 0)
(-0.00178362 0.00110006 0)
(-0.000554286 0.000449439 0)
(-0.00100969 0.000802611 0)
(0.000602255 -0.000371445 0)
(0.00164156 -0.00133104 0)
(0.00100969 -0.000802611 0)
(0.00289644 -0.0017864 0)
(0.00358749 -0.00290889 0)
(0.00287536 -0.00228564 0)
(0.00474967 -0.00292939 0)
(0.00498726 -0.00404388 0)
(0.00430329 -0.00342071 0)
(0.00587981 -0.00362641 0)
(0.00562776 -0.00456323 0)
(0.00507607 -0.004035 0)
(0.0061148 -0.00377134 0)
(0.00541149 -0.00438787 0)
(0.00507607 -0.004035 0)
(0.00541886 -0.00334212 0)
(0.00437137 -0.00354449 0)
(0.00430329 -0.00342071 0)
(0.00389796 -0.00240409 0)
(0.00266575 -0.0021615 0)
(0.00287536 -0.00228564 0)
(0.00178362 -0.00110006 0)
(0.000554286 -0.000449439 0)
(0.00100969 -0.000802611 0)
(-0.000602255 0.000371445 0)
(-0.00164156 0.00133104 0)
(-0.00100969 0.000802611 0)
(-0.00289644 0.0017864 0)
(-0.00358749 0.00290889 0)
(-0.00287536 0.00228564 0)
(-0.00474967 0.00292939 0)
(-0.00498726 0.00404388 0)
(-0.00430329 0.00342071 0)
(-0.00587981 0.00362641 0)
(-0.00562776 0.00456323 0)
(-0.00507607 0.004035 0)
(-0.00758328 -0.00108509 0)
(-0.00654675 -0.000826343 0)
(-0.00641016 -0.00183829 0)
(-0.00672021 -0.000961592 0)
(-0.00528842 -0.000667515 0)
(-0.00543427 -0.00155842 0)
(-0.00483406 -0.000691703 0)
(-0.00322498 -0.000407063 0)
(-0.00363107 -0.00104131 0)
(-0.00221196 -0.000316508 0)
(-0.000670568 -8.46403e-05 0)
(-0.00127506 -0.000365658 0)
(0.000746888 0.000106872 0)
(0.00198593 0.000250668 0)
(0.00127506 0.000365658 0)
(0.00359203 0.000513981 0)
(0.0043401 0.000547815 0)
(0.00363107 0.00104131 0)
(0.00589032 0.000842842 0)
(0.00603352 0.000761562 0)
(0.00543427 0.00155842 0)
(0.00729186 0.00104339 0)
(0.00680839 0.000859368 0)
(0.00641016 0.00183829 0)
(0.00758328 0.00108509 0)
(0.00654675 0.000826343 0)
(0.00641016 0.00183829 0)
(0.00672021 0.000961592 0)
(0.00528842 0.000667515 0)
(0.00543427 0.00155842 0)
(0.00483406 0.000691703 0)
(0.00322498 0.000407063 0)
(0.00363107 0.00104131 0)
(0.00221196 0.000316508 0)
(0.000670568 8.46403e-05 0)
(0.00127506 0.000365658 0)
(-0.000746888 -0.000106872 0)
(-0.00198593 -0.000250668 0)
(-0.00127506 -0.000365658 0)
(-0.00359203 -0.000513981 0)
(-0.0043401 -0.000547815 0)
(-0.00363107 -0.00104131 0)
(-0.00589032 -0.000842842 0)
(-0.00603352 -0.000761562 0)
(-0.00543427 -0.00155842 0)
(-0.00729186 -0.00104339 0)
(-0.00680839 -0.000859368 0)
(-0.00641016 -0.00183829 0)
(-0.00801302 -0.00205233 0)
(-0.00737634 -0.00273851 0)
(-0.00684165 -0.00285003 0)
(-0.00710105 -0.00181875 0)
(-0.00539228 -0.00224627 0)
(-0.00640918 -0.00237945 0)
(-0.005108 -0.00130828 0)
(-0.00328832 -0.00136982 0)
(-0.00428248 -0.0015899 0)
(-0.00233731 -0.000598642 0)
(-0.000683737 -0.000284825 0)
(-0.00150381 -0.000558298 0)
(0.000789214 0.000202137 0)
(0.00202494 0.000843529 0)
(0.00150381 0.000558298 0)
(0.00379559 0.000972142 0)
(0.00442533 0.00184346 0)
(0.00428248 0.0015899 0)
(0.00622412 0.00159415 0)
(0.00615201 0.00256275 0)
(0.00640918 0.00237945 0)
(0.00770508 0.00197346 0)
(0.0069421 0.00289188 0)
(0.00756014 0.00280675 0)
(0.00801302 0.00205233 0)
(0.00667532 0.00278074 0)
(0.00756014 0.00280675 0)
(0.00710105 0.00181875 0)
(0.00539228 0.00224627 0)
(0.00640918 0.00237945 0)
(0.005108 0.00130828 0)
(0.00328832 0.00136982 0)
(0.00428248 0.0015899 0)
(0.00233731 0.000598642 0)
(0.000683737 0.000284825 0)
(0.00150381 0.000558298 0)
(-0.000789214 -0.000202137 0)
(-0.00202494 -0.000843529 0)
(-0.00150381 -0.000558298 0)
(-0.00379559 -0.000972142 0)
(-0.00442533 -0.00184346 0)
(-0.00428248 -0.0015899 0)
(-0.00622412 -0.00159415 0)
(-0.00615201 -0.00256275 0)
(-0.00640918 -0.00237945 0)
(-0.00770508 -0.00197346 0)
(-0.0069421 -0.00289188 0)
(-0.00756014 -0.00280675 0)
(-0.000685894 0.0093701 0)
(-0.000637041 0.00970498 0)
(-0.00125665 0.00926772 0)
(-0.0005871 0.00894416 0)
(-0.000532768 0.00727824 0)
(-0.00106533 0.00785679 0)
(-0.000422319 0.00643381 0)
(-0.000324892 0.00443841 0)
(-0.000711833 0.00524974 0)
(-0.000193244 0.00294397 0)
(-6.75546e-05 0.000922875 0)
(-0.000249963 0.00184346 0)
(6.52506e-05 -0.000994058 0)
(0.000200068 -0.00273316 0)
(0.000249963 -0.00184346 0)
(0.000313811 -0.00478075 0)
(0.000437232 -0.00597309 0)
(0.000711833 -0.00524974 0)
(0.000514597 -0.00783962 0)
(0.000607831 -0.00830368 0)
(0.00106533 -0.00785679 0)
(0.000637041 -0.00970498 0)
(0.000685894 -0.0093701 0)
(0.00125665 -0.00926772 0)
(0.0006625 -0.0100928 0)
(0.000659535 -0.00901002 0)
(0.00125665 -0.00926772 0)
(0.0005871 -0.00894416 0)
(0.000532768 -0.00727824 0)
(0.00106533 -0.00785679 0)
(0.000422319 -0.00643381 0)
(0.000324892 -0.00443841 0)
(0.000711833 -0.00524974 0)
(0.000193244 -0.00294397 0)
(6.75546e-05 -0.000922875 0)
(0.000249963 -0.00184346 0)
(-6.52506e-05 0.000994058 0)
(-0.000200068 0.00273316 0)
(-0.000249963 0.00184346 0)
(-0.000313811 0.00478075 0)
(-0.000437232 0.00597309 0)
(-0.000711833 0.00524974 0)
(-0.000514597 0.00783962 0)
(-0.000607831 0.00830368 0)
(-0.00106533 0.00785679 0)
(-0.000637041 0.00970498 0)
(-0.000685894 0.0093701 0)
(-0.00125665 0.00926772 0)
(0.00055058 0.00966118 0)
(0.000362899 0.00996711 0)
(0.00102329 0.00980274 0)
(0.00033445 0.00918574 0)
(0.000806513 0.00772608 0)
(0.000460006 0.00807185 0)
(0.00024058 0.00660759 0)
(0.000491827 0.00471151 0)
(0.000307366 0.00539344 0)
(0.000110084 0.00302349 0)
(0.000102265 0.000979661 0)
(0.000107933 0.00189392 0)
(-3.71709e-05 -0.00102091 0)
(-0.000302866 -0.00290133 0)
(-0.000107933 -0.00189392 0)
(-0.000178767 -0.00490988 0)
(-0.000661888 -0.00634063 0)
(-0.000307366 -0.00539344 0)
(-0.000293148 -0.00805137 0)
(-0.000920144 -0.00881462 0)
(-0.000460006 -0.00807185 0)
(-0.000362899 -0.00996711 0)
(-0.00103832 -0.00994666 0)
(-0.000542614 -0.00952139 0)
(-0.000377402 -0.0103655 0)
(-0.000998415 -0.00956442 0)
(-0.000542614 -0.00952139 0)
(-0.00033445 -0.00918574 0)
(-0.000806513 -0.00772608 0)
(-0.000460006 -0.00807185 0)
(-0.00024058 -0.00660759 0)
(-0.000491827 -0.00471151 0)
(-0.000307366 -0.00539344 0)
(-0.000110084 -0.00302349 0)
(-0.000102265 -0.000979661 0)
(-0.000107933 -0.00189392 0)
(3.71709e-05 0.00102091 0)
(0.000302866 0.00290133 0)
(0.000107933 0.00189392 0)
(0.000178767 0.00490988 0)
(0.000661888 0.00634063 0)
(0.000307366 0.00539344 0)
(0.000293148 0.00805137 0)
(0.000920144 0.00881462 0)
(0.000460006 0.00807185 0)
(0.000362899 0.00996711 0)
(0.00103832 0.00994666 0)
(0.000542614 0.00952139 0)
(0.00938703 -0.000758204 0)
(0.00916912 -0.00135643 0)
(0.009882 -0.000645294 0)
(0.00845031 -0.00125009 0)
(0.00729138 -0.000588935 0)
(0.00837756 -0.000547054 0)
(0.00607857 -0.00089923 0)
(0.00444643 -0.000359144 0)
(0.0055977 -0.00036553 0)
(0.00278142 -0.000411468 0)
(0.000924542 -7.46766e-05 0)
(0.00196565 -0.000128357 0)
(-0.000939171 0.000138936 0)
(-0.0027381 0.00022116 0)
(-0.00196565 0.000128357 0)
(-0.00451678 0.000668188 0)
(-0.00598388 0.000483327 0)
(-0.0055977 0.00036553 0)
(-0.00740676 0.00109572 0)
(-0.00831868 0.000671911 0)
(-0.00837756 0.000547054 0)
(-0.00916912 0.00135643 0)
(-0.00938703 0.000758204 0)
(-0.009882 0.000645294 0)
(-0.00953556 0.00141064 0)
(-0.00902629 0.000729066 0)
(-0.009882 0.000645294 0)
(-0.00845031 0.00125009 0)
(-0.00729138 0.000588935 0)
(-0.00837756 0.000547054 0)
(-0.00607857 0.00089923 0)
(-0.00444643 0.000359144 0)
(-0.0055977 0.00036553 0)
(-0.00278142 0.000411468 0)
(-0.000924542 7.46766e-05 0)
(-0.00196565 0.000128357 0)
(0.000939171 -0.000138936 0)
(0.0027381 -0.00022116 0)
(0.00196565 -0.000128357 0)
(0.00451678 -0.000668188 0)
(0.00598388 -0.000483327 0)
(0.0055977 -0.00036553 0)
(0.00740676 -0.00109572 0)
(0.00831868 -0.000671911 0)
(0.00837756 -0.000547054 0)
(0.00916912 -0.00135643 0)
(0.00938703 -0.000758204 0)
(0.009882 -0.000645294 0)
(0.000654768 0.0100271 0)
(0.00135643 0.00916912 0)
(0.000747233 0.00925121 0)
(0.00125009 0.00845031 0)
(0.000588935 0.00729138 0)
(0.000547054 0.00837756 0)
(0.00089923 0.00607857 0)
(0.000359144 0.00444643 0)
(0.00036553 0.0055977 0)
(0.000411468 0.00278142 0)
(6.4489e-05 0.000987582 0)
(0.000148634 0.00184018 0)
(-0.000138936 -0.000939171 0)
(-0.00022116 -0.0027381 0)
(-0.000128357 -0.00196565 0)
(-0.000668188 -0.00451678 0)
(-0.000483327 -0.00598388 0)
(-0.00036553 -0.0055977 0)
(-0.00109572 -0.00740676 0)
(-0.000671911 -0.00831868 0)
(-0.000547054 -0.00837756 0)
(-0.00135643 -0.00916912 0)
(-0.000758204 -0.00938703 0)
(-0.000645294 -0.009882 0)
(-0.00141064 -0.00953556 0)
(-0.000729066 -0.00902629 0)
(-0.000645294 -0.009882 0)
(-0.00125009 -0.00845031 0)
(-0.000588935 -0.00729138 0)
(-0.000547054 -0.00837756 0)
(-0.00089923 -0.00607857 0)
(-0.000359144 -0.00444643 0)
(-0.00036553 -0.0055977 0)
(-0.000411468 -0.00278142 0)
(-7.46766e-05 -0.000924542 0)
(-0.000128357 -0.00196565 0)
(0.000138936 0.000939171 0)
(0.00022116 0.0027381 0)
(0.000128357 0.00196565 0)
(0.000668188 0.00451678 0)
(0.000483327 0.00598388 0)
(0.00036553 0.0055977 0)
(0.00109572 0.00740676 0)
(0.000671911 0.00831868 0)
(0.000547054 0.00837756 0)
(0.00135643 0.00916912 0)
(0.000758204 0.00938703 0)
(0.000645294 0.009882 0)
(-0.000654768 -0.0100271 0)
(-0.00135643 -0.00916912 0)
(-0.000747233 -0.00925121 0)
(-0.00125009 -0.00845031 0)
(-0.000588935 -0.00729138 0)
(-0.000547054 -0.00837756 0)
(-0.00089923 -0.00607857 0)
(-0.000310149 -0.00474961 0)
(-0.000423274 -0.00524039 0)
(-0.000411468 -0.00278142 0)
(-6.4489e-05 -0.000987582 0)
(-0.000148634 -0.00184018 0)
(0.000138936 0.000939171 0)
(0.000190989 0.00292479 0)
(0.000148634 0.00184018 0)
(0.000668188 0.00451678 0)
(0.00041739 0.00639189 0)
(0.000423274 0.00524039 0)
(0.00109572 0.00740676 0)
(0.000580248 0.00888589 0)
(0.000633474 0.00784279 0)
(0.00135643 0.00916912 0)
(0.000654768 0.0100271 0)
(0.000747233 0.00925121 0)
(0.00141064 0.00953556 0)
(0.000629606 0.00964175 0)
(0.000747233 0.00925121 0)
(0.00125009 0.00845031 0)
(0.000508591 0.00778855 0)
(0.000633474 0.00784279 0)
(0.00089923 0.00607857 0)
(0.000310149 0.00474961 0)
(0.000423274 0.00524039 0)
(0.000411468 0.00278142 0)
(7.46766e-05 0.000924542 0)
(0.000128357 0.00196565 0)
(-0.000138936 -0.000939171 0)
(-0.000190989 -0.00292479 0)
(-0.000148634 -0.00184018 0)
(-0.000668188 -0.00451678 0)
(-0.000483327 -0.00598388 0)
(-0.00036553 -0.0055977 0)
(-0.00109572 -0.00740676 0)
(-0.000580248 -0.00888589 0)
(-0.000633474 -0.00784279 0)
(-0.00135643 -0.00916912 0)
(-0.000654768 -0.0100271 0)
(-0.000747233 -0.00925121 0)
(-0.00938703 0.000758204 0)
(-0.00916912 0.00135643 0)
(-0.009882 0.000645294 0)
(-0.00845031 0.00125009 0)
(-0.00729138 0.000588935 0)
(-0.00837756 0.000547054 0)
(-0.00607857 0.00089923 0)
(-0.00444643 0.000359144 0)
(-0.0055977 0.00036553 0)
(-0.00278142 0.000411468 0)
(-0.000987582 6.4489e-05 0)
(-0.00184018 0.000148634 0)
(0.000939171 -0.000138936 0)
(0.00292479 -0.000190989 0)
(0.00184018 -0.000148634 0)
(0.00451678 -0.000668188 0)
(0.00639189 -0.00041739 0)
(0.00524039 -0.000423274 0)
(0.00740676 -0.00109572 0)
(0.00888589 -0.000580248 0)
(0.00784279 -0.000633474 0)
(0.00916912 -0.00135643 0)
(0.0100271 -0.000654768 0)
(0.00925121 -0.000747233 0)
(0.00953556 -0.00141064 0)
(0.00964175 -0.000629606 0)
(0.00925121 -0.000747233 0)
(0.00845031 -0.00125009 0)
(0.00778855 -0.000508591 0)
(0.00784279 -0.000633474 0)
(0.00607857 -0.00089923 0)
(0.00474961 -0.000310149 0)
(0.00524039 -0.000423274 0)
(0.00278142 -0.000411468 0)
(0.000987582 -6.4489e-05 0)
(0.00184018 -0.000148634 0)
(-0.000939171 0.000138936 0)
(-0.0027381 0.00022116 0)
(-0.00196565 0.000128357 0)
(-0.00451678 0.000668188 0)
(-0.00639189 0.00041739 0)
(-0.00524039 0.000423274 0)
(-0.00740676 0.00109572 0)
(-0.00888589 0.000580248 0)
(-0.00784279 0.000633474 0)
(-0.00916912 0.00135643 0)
(-0.0100271 0.000654768 0)
(-0.00925121 0.000747233 0)
(-0.00629187 0.00244992 0)
(-0.00507549 0.00258424 0)
(-0.00586793 0.00183921 0)
(-0.00557578 0.00217109 0)
(-0.00462484 0.00144958 0)
(-0.00441001 0.00224541 0)
(-0.00401083 0.00156174 0)
(-0.00282032 0.000883984 0)
(-0.00294668 0.00150033 0)
(-0.00183527 0.000714617 0)
(-0.000586426 0.000183806 0)
(-0.00103474 0.000526847 0)
(0.000619695 -0.000241297 0)
(0.00173674 -0.000544355 0)
(0.00103474 -0.000526847 0)
(0.00298032 -0.00116047 0)
(0.00379551 -0.00118964 0)
(0.00294668 -0.00150033 0)
(0.00488721 -0.00190298 0)
(0.00527644 -0.00165382 0)
(0.00441001 -0.00224541 0)
(0.00605007 -0.00235578 0)
(0.00595408 -0.00186621 0)
(0.00520196 -0.00264864 0)
(0.00629187 -0.00244992 0)
(0.00572527 -0.0017945 0)
(0.00520196 -0.00264864 0)
(0.00557578 -0.00217109 0)
(0.00462484 -0.00144958 0)
(0.00441001 -0.00224541 0)
(0.00401083 -0.00156174 0)
(0.00282032 -0.000883984 0)
(0.00294668 -0.00150033 0)
(0.00183527 -0.000714617 0)
(0.000586426 -0.000183806 0)
(0.00103474 -0.000526847 0)
(-0.000619695 0.000241297 0)
(-0.00173674 0.000544355 0)
(-0.00103474 0.000526847 0)
(-0.00298032 0.00116047 0)
(-0.00379551 0.00118964 0)
(-0.00294668 0.00150033 0)
(-0.00488721 0.00190298 0)
(-0.00527644 0.00165382 0)
(-0.00441001 0.00224541 0)
(-0.00605007 0.00235578 0)
(-0.00595408 0.00186621 0)
(-0.00520196 0.00264864 0)
(0.00367324 -0.00763547 0)
(0.00383089 -0.00665961 0)
(0.00441806 -0.0066714 0)
(0.00397272 -0.00599892 0)
(0.00309457 -0.00537959 0)
(0.00306896 -0.00637938 0)
(0.0028577 -0.00431521 0)
(0.00188713 -0.00328058 0)
(0.00205062 -0.00426256 0)
(0.00130762 -0.00197455 0)
(0.000392389 -0.000682129 0)
(0.000720081 -0.00149681 0)
(-0.00044153 0.000666722 0)
(-0.00116209 0.00202017 0)
(-0.000720081 0.00149681 0)
(-0.00212346 0.00320649 0)
(-0.00253965 0.00441492 0)
(-0.00205062 0.00426256 0)
(-0.00348211 0.00525809 0)
(-0.00353057 0.00613754 0)
(-0.00306896 0.00637938 0)
(-0.00431065 0.0065092 0)
(-0.003984 0.00692577 0)
(-0.00362009 0.00752499 0)
(-0.00448292 0.00676934 0)
(-0.00383089 0.00665961 0)
(-0.00362009 0.00752499 0)
(-0.00397272 0.00599892 0)
(-0.00309457 0.00537959 0)
(-0.00306896 0.00637938 0)
(-0.0028577 0.00431521 0)
(-0.00188713 0.00328058 0)
(-0.00205062 0.00426256 0)
(-0.00130762 0.00197455 0)
(-0.000392389 0.000682129 0)
(-0.000720081 0.00149681 0)
(0.00044153 -0.000666722 0)
(0.00116209 -0.00202017 0)
(0.000720081 -0.00149681 0)
(0.00212346 -0.00320649 0)
(0.00253965 -0.00441492 0)
(0.00205062 -0.00426256 0)
(0.00348211 -0.00525809 0)
(0.00353057 -0.00613754 0)
(0.00306896 -0.00637938 0)
(0.00431065 -0.0065092 0)
(0.003984 -0.00692577 0)
(0.00362009 -0.00752499 0)
(0.00676934 0.00448292 0)
(0.00665961 0.00383089 0)
(0.00752499 0.00362009 0)
(0.00599892 0.00397272 0)
(0.00537959 0.00309457 0)
(0.00637938 0.00306896 0)
(0.00431521 0.0028577 0)
(0.00328058 0.00188713 0)
(0.00426256 0.00205062 0)
(0.00197455 0.00130762 0)
(0.000682129 0.000392389 0)
(0.00149681 0.000720081 0)
(-0.000666722 -0.00044153 0)
(-0.00202017 -0.00116209 0)
(-0.00149681 -0.000720081 0)
(-0.00320649 -0.00212346 0)
(-0.00441492 -0.00253965 0)
(-0.00426256 -0.00205062 0)
(-0.00525809 -0.00348211 0)
(-0.00613754 -0.00353057 0)
(-0.00637938 -0.00306896 0)
(-0.0065092 -0.00431065 0)
(-0.00692577 -0.003984 0)
(-0.00752499 -0.00362009 0)
(-0.00676934 -0.00448292 0)
(-0.00665961 -0.00383089 0)
(-0.00752499 -0.00362009 0)
(-0.00599892 -0.00397272 0)
(-0.00537959 -0.00309457 0)
(-0.00637938 -0.00306896 0)
(-0.00431521 -0.0028577 0)
(-0.00328058 -0.00188713 0)
(-0.00426256 -0.00205062 0)
(-0.00197455 -0.00130762 0)
(-0.000682129 -0.000392389 0)
(-0.00149681 -0.000720081 0)
(0.000666722 0.00044153 0)
(0.00202017 0.00116209 0)
(0.00149681 0.000720081 0)
(0.00320649 0.00212346 0)
(0.00441492 0.00253965 0)
(0.00426256 0.00205062 0)
(0.00525809 0.00348211 0)
(0.00613754 0.00353057 0)
(0.00637938 0.00306896 0)
(0.0065092 0.00431065 0)
(0.00692577 0.003984 0)
(0.00752499 0.00362009 0)
(0.00410777 -0.00763431 0)
(0.00467461 -0.00663976 0)
(0.00487453 -0.00668194 0)
(0.00438317 -0.0060084 0)
(0.00377612 -0.00536356 0)
(0.00343201 -0.00637841 0)
(0.00315295 -0.00432203 0)
(0.00230275 -0.0032708 0)
(0.0022932 -0.00426192 0)
(0.00144272 -0.00197767 0)
(0.000478809 -0.000680095 0)
(0.000805264 -0.00149659 0)
(-0.000487148 0.000667776 0)
(-0.00141803 0.00201415 0)
(-0.000805264 0.00149659 0)
(-0.00234285 0.00321156 0)
(-0.00309898 0.00440176 0)
(-0.0022932 0.00426192 0)
(-0.00384188 0.0052664 0)
(-0.00430815 0.00611924 0)
(-0.00343201 0.00637841 0)
(-0.00475602 0.00651949 0)
(-0.00486143 0.00690512 0)
(-0.00404834 0.00752385 0)
(-0.00494609 0.00678004 0)
(-0.00467461 0.00663976 0)
(-0.00404834 0.00752385 0)
(-0.00438317 0.0060084 0)
(-0.00377612 0.00536356 0)
(-0.00343201 0.00637841 0)
(-0.00315295 0.00432203 0)
(-0.00230275 0.0032708 0)
(-0.0022932 0.00426192 0)
(-0.00144272 0.00197767 0)
(-0.000478809 0.000680095 0)
(-0.000805264 0.00149659 0)
(0.000487148 -0.000667776 0)
(0.00141803 -0.00201415 0)
(0.000805264 -0.00149659 0)
(0.00234285 -0.00321156 0)
(0.00309898 -0.00440176 0)
(0.0022932 -0.00426192 0)
(0.00384188 -0.0052664 0)
(0.00430815 -0.00611924 0)
(0.00343201 -0.00637841 0)
(0.00475602 -0.00651949 0)
(0.00486143 -0.00690512 0)
(0.00404834 -0.00752385 0)
(-0.00676934 -0.00448292 0)
(-0.00665961 -0.00383089 0)
(-0.00752499 -0.00362009 0)
(-0.00599892 -0.00397272 0)
(-0.00537959 -0.00309457 0)
(-0.00637938 -0.00306896 0)
(-0.00431521 -0.0028577 0)
(-0.00328058 -0.00188713 0)
(-0.00426256 -0.00205062 0)
(-0.00197455 -0.00130762 0)
(-0.000682129 -0.000392389 0)
(-0.00149681 -0.000720081 0)
(0.000666722 0.00044153 0)
(0.00202017 0.00116209 0)
(0.00149681 0.000720081 0)
(0.00320649 0.00212346 0)
(0.00441492 0.00253965 0)
(0.00426256 0.00205062 0)
(0.00525809 0.00348211 0)
(0.00613754 0.00353057 0)
(0.00637938 0.00306896 0)
(0.0065092 0.00431065 0)
(0.00692577 0.003984 0)
(0.00752499 0.00362009 0)
(0.00676934 0.00448292 0)
(0.00665961 0.00383089 0)
(0.00752499 0.00362009 0)
(0.00599892 0.00397272 0)
(0.00537959 0.00309457 0)
(0.00637938 0.00306896 0)
(0.00431521 0.0028577 0)
(0.00328058 0.00188713 0)
(0.00426256 0.00205062 0)
(0.00197455 0.00130762 0)
(0.000682129 0.000392389 0)
(0.00149681 0.000720081 0)
(-0.000666722 -0.00044153 0)
(-0.00202017 -0.00116209 0)
(-0.00149681 -0.000720081 0)
(-0.00320649 -0.00212346 0)
(-0.00441492 -0.00253965 0)
(-0.00426256 -0.00205062 0)
(-0.00525809 -0.00348211 0)
(-0.00613754 -0.00353057 0)
(-0.00637938 -0.00306896 0)
(-0.0065092 -0.00431065 0)
(-0.00692577 -0.003984 0)
(-0.00752499 -0.00362009 0)
(0.00678004 0.00494609 0)
(0.00663976 0.00467461 0)
(0.00752385 0.00404834 0)
(0.0060084 0.00438317 0)
(0.00536356 0.00377612 0)
(0.00637841 0.00343201 0)
(0.00432203 0.00315295 0)
(0.0032708 0.00230275 0)
(0.00426192 0.0022932 0)
(0.00197767 0.00144272 0)
(0.000680095 0.000478809 0)
(0.00149659 0.000805264 0)
(-0.000667776 -0.000487148 0)
(-0.00201415 -0.00141803 0)
(-0.00149659 -0.000805264 0)
(-0.00321156 -0.00234285 0)
(-0.00440176 -0.00309898 0)
(-0.00426192 -0.0022932 0)
(-0.0052664 -0.00384188 0)
(-0.00611924 -0.00430815 0)
(-0.00637841 -0.00343201 0)
(-0.00651949 -0.00475602 0)
(-0.00690512 -0.00486143 0)
(-0.00752385 -0.00404834 0)
(-0.00678004 -0.00494609 0)
(-0.00663976 -0.00467461 0)
(-0.00752385 -0.00404834 0)
(-0.0060084 -0.00438317 0)
(-0.00536356 -0.00377612 0)
(-0.00637841 -0.00343201 0)
(-0.00432203 -0.00315295 0)
(-0.0032708 -0.00230275 0)
(-0.00426192 -0.0022932 0)
(-0.00197767 -0.00144272 0)
(-0.000680095 -0.000478809 0)
(-0.00149659 -0.000805264 0)
(0.000667776 0.000487148 0)
(0.00201415 0.00141803 0)
(0.00149659 0.000805264 0)
(0.00321156 0.00234285 0)
(0.00440176 0.00309898 0)
(0.00426192 0.0022932 0)
(0.0052664 0.00384188 0)
(0.00611924 0.00430815 0)
(0.00637841 0.00343201 0)
(0.00651949 0.00475602 0)
(0.00690512 0.00486143 0)
(0.00752385 0.00404834 0)
(-0.00448292 0.00676934 0)
(-0.00383089 0.00665961 0)
(-0.00362009 0.00752499 0)
(-0.00397272 0.00599892 0)
(-0.00309457 0.00537959 0)
(-0.00306896 0.00637938 0)
(-0.0028577 0.00431521 0)
(-0.00188713 0.00328058 0)
(-0.00205062 0.00426256 0)
(-0.00130762 0.00197455 0)
(-0.000392389 0.000682129 0)
(-0.000720081 0.00149681 0)
(0.00044153 -0.000666722 0)
(0.00116209 -0.00202017 0)
(0.000720081 -0.00149681 0)
(0.00212346 -0.00320649 0)
(0.00253965 -0.00441492 0)
(0.00205062 -0.00426256 0)
(0.00348211 -0.00525809 0)
(0.00353057 -0.00613754 0)
(0.00306896 -0.00637938 0)
(0.00431065 -0.0065092 0)
(0.003984 -0.00692577 0)
(0.00362009 -0.00752499 0)
(0.00448292 -0.00676934 0)
(0.00383089 -0.00665961 0)
(0.00362009 -0.00752499 0)
(0.00397272 -0.00599892 0)
(0.00309457 -0.00537959 0)
(0.00306896 -0.00637938 0)
(0.0028577 -0.00431521 0)
(0.00188713 -0.00328058 0)
(0.00205062 -0.00426256 0)
(0.00130762 -0.00197455 0)
(0.000392389 -0.000682129 0)
(0.000720081 -0.00149681 0)
(-0.00044153 0.000666722 0)
(-0.00116209 0.00202017 0)
(-0.000720081 0.00149681 0)
(-0.00212346 0.00320649 0)
(-0.00253965 0.00441492 0)
(-0.00205062 0.00426256 0)
(-0.00348211 0.00525809 0)
(-0.00353057 0.00613754 0)
(-0.00306896 0.00637938 0)
(-0.00431065 0.0065092 0)
(-0.003984 0.00692577 0)
(-0.00362009 0.00752499 0)
(-0.00678004 -0.00494609 0)
(-0.00663976 -0.00467461 0)
(-0.00752385 -0.00404834 0)
(-0.0060084 -0.00438317 0)
(-0.00536356 -0.00377612 0)
(-0.00637841 -0.00343201 0)
(-0.00432203 -0.00315295 0)
(-0.0032708 -0.00230275 0)
(-0.00426192 -0.0022932 0)
(-0.00197767 -0.00144272 0)
(-0.000680095 -0.000478809 0)
(-0.00149659 -0.000805264 0)
(0.000667776 0.000487148 0)
(0.00201415 0.00141803 0)
(0.00149659 0.000805264 0)
(0.00321156 0.00234285 0)
(0.00440176 0.00309898 0)
(0.00426192 0.0022932 0)
(0.0052664 0.00384188 0)
(0.00611924 0.00430815 0)
(0.00637841 0.00343201 0)
(0.00651949 0.00475602 0)
(0.00690512 0.00486143 0)
(0.00752385 0.00404834 0)
(0.00678004 0.00494609 0)
(0.00663976 0.00467461 0)
(0.00752385 0.00404834 0)
(0.0060084 0.00438317 0)
(0.00536356 0.00377612 0)
(0.00637841 0.00343201 0)
(0.00432203 0.00315295 0)
(0.0032708 0.00230275 0)
(0.00426192 0.0022932 0)
(0.00197767 0.00144272 0)
(0.000680095 0.000478809 0)
(0.00149659 0.000805264 0)
(-0.000667776 -0.000487148 0)
(-0.00201415 -0.00141803 0)
(-0.00149659 -0.000805264 0)
(-0.00321156 -0.00234285 0)
(-0.00440176 -0.00309898 0)
(-0.00426192 -0.0022932 0)
(-0.0052664 -0.00384188 0)
(-0.00611924 -0.00430815 0)
(-0.00637841 -0.00343201 0)
(-0.00651949 -0.00475602 0)
(-0.00690512 -0.00486143 0)
(-0.00752385 -0.00404834 0)
(-0.00494609 0.00678004 0)
(-0.00467461 0.00663976 0)
(-0.00404834 0.00752385 0)
(-0.00438317 0.0060084 0)
(-0.00377612 0.00536356 0)
(-0.00343201 0.00637841 0)
(-0.00315295 0.00432203 0)
(-0.00230275 0.0032708 0)
(-0.0022932 0.00426192 0)
(-0.00144272 0.00197767 0)
(-0.000478809 0.000680095 0)
(-0.000805264 0.00149659 0)
(0.000487148 -0.000667776 0)
(0.00141803 -0.00201415 0)
(0.000805264 -0.00149659 0)
(0.00234285 -0.00321156 0)
(0.00309898 -0.00440176 0)
(0.0022932 -0.00426192 0)
(0.00384188 -0.0052664 0)
(0.00430815 -0.00611924 0)
(0.00343201 -0.00637841 0)
(0.00475602 -0.00651949 0)
(0.00486143 -0.00690512 0)
(0.00404834 -0.00752385 0)
(0.00494609 -0.00678004 0)
(0.00467461 -0.00663976 0)
(0.00404834 -0.00752385 0)
(0.00438317 -0.0060084 0)
(0.00377612 -0.00536356 0)
(0.00343201 -0.00637841 0)
(0.00315295 -0.00432203 0)
(0.00230275 -0.0032708 0)
(0.0022932 -0.00426192 0)
(0.00144272 -0.00197767 0)
(0.000478809 -0.000680095 0)
(0.000805264 -0.00149659 0)
(-0.000487148 0.000667776 0)
(-0.00141803 0.00201415 0)
(-0.000805264 0.00149659 0)
(-0.00234285 0.00321156 0)
(-0.00309898 0.00440176 0)
(-0.0022932 0.00426192 0)
(-0.00384188 0.0052664 0)
(-0.00430815 0.00611924 0)
(-0.00343201 0.00637841 0)
(-0.00475602 0.00651949 0)
(-0.00486143 0.00690512 0)
(-0.00404834 0.00752385 0)
(0.00182137 0.00955613 0)
(0.00169276 0.00952106 0)
(0.00110728 0.0100953 0)
(0.00161408 0.00846853 0)
(0.00087271 0.00795668 0)
(0.00147081 0.00827269 0)
(0.00116106 0.00609168 0)
(0.000532196 0.00485214 0)
(0.000982763 0.00552764 0)
(0.000531274 0.00278742 0)
(0.000110659 0.0010089 0)
(0.000345101 0.00194105 0)
(-0.000179389 -0.000941197 0)
(-0.000327724 -0.00298793 0)
(-0.000345101 -0.00194105 0)
(-0.000862742 -0.00452652 0)
(-0.000716215 -0.00652988 0)
(-0.000982763 -0.00552764 0)
(-0.00141475 -0.00742273 0)
(-0.000995668 -0.00907771 0)
(-0.00147081 -0.00827269 0)
(-0.00175137 -0.00918889 0)
(-0.00112354 -0.0102435 0)
(-0.00173494 -0.0097583 0)
(-0.00182137 -0.00955613 0)
(-0.00108036 -0.00984989 0)
(-0.00173494 -0.0097583 0)
(-0.00161408 -0.00846853 0)
(-0.00087271 -0.00795668 0)
(-0.00147081 -0.00827269 0)
(-0.00116106 -0.00609168 0)
(-0.000532196 -0.00485214 0)
(-0.000982763 -0.00552764 0)
(-0.000531274 -0.00278742 0)
(-0.000110659 -0.0010089 0)
(-0.000345101 -0.00194105 0)
(0.000179389 0.000941197 0)
(0.000327724 0.00298793 0)
(0.000345101 0.00194105 0)
(0.000862742 0.00452652 0)
(0.000716215 0.00652988 0)
(0.000982763 0.00552764 0)
(0.00141475 0.00742273 0)
(0.000995668 0.00907771 0)
(0.00147081 0.00827269 0)
(0.00175137 0.00918889 0)
(0.00112354 0.0102435 0)
(0.00173494 0.0097583 0)
(-0.00955613 0.00182137 0)
(-0.00984989 0.00108036 0)
(-0.0097583 0.00173494 0)
(-0.00846853 0.00161408 0)
(-0.00795668 0.00087271 0)
(-0.00827269 0.00147081 0)
(-0.00609168 0.00116106 0)
(-0.00485214 0.000532196 0)
(-0.00552764 0.000982763 0)
(-0.00278742 0.000531274 0)
(-0.0010089 0.000110659 0)
(-0.00194105 0.000345101 0)
(0.000941197 -0.000179389 0)
(0.00298793 -0.000327724 0)
(0.00194105 -0.000345101 0)
(0.00452652 -0.000862742 0)
(0.00652988 -0.000716215 0)
(0.00552764 -0.000982763 0)
(0.00742273 -0.00141475 0)
(0.00907771 -0.000995668 0)
(0.00827269 -0.00147081 0)
(0.00918889 -0.00175137 0)
(0.0102435 -0.00112354 0)
(0.0097583 -0.00173494 0)
(0.00955613 -0.00182137 0)
(0.00984989 -0.00108036 0)
(0.0097583 -0.00173494 0)
(0.00846853 -0.00161408 0)
(0.00795668 -0.00087271 0)
(0.00827269 -0.00147081 0)
(0.00609168 -0.00116106 0)
(0.00485214 -0.000532196 0)
(0.00552764 -0.000982763 0)
(0.00278742 -0.000531274 0)
(0.0010089 -0.000110659 0)
(0.00194105 -0.000345101 0)
(-0.000941197 0.000179389 0)
(-0.00298793 0.000327724 0)
(-0.00194105 0.000345101 0)
(-0.00452652 0.000862742 0)
(-0.00652988 0.000716215 0)
(-0.00552764 0.000982763 0)
(-0.00742273 0.00141475 0)
(-0.00907771 0.000995668 0)
(-0.00827269 0.00147081 0)
(-0.00918889 0.00175137 0)
(-0.0102435 0.00112354 0)
(-0.0097583 0.00173494 0)
(0.00955613 -0.00182137 0)
(0.00984989 -0.00108036 0)
(0.0097583 -0.00173494 0)
(0.00846853 -0.00161408 0)
(0.00795668 -0.00087271 0)
(0.00827269 -0.00147081 0)
(0.00609168 -0.00116106 0)
(0.00485214 -0.000532196 0)
(0.00552764 -0.000982763 0)
(0.00278742 -0.000531274 0)
(0.0010089 -0.000110659 0)
(0.00194105 -0.000345101 0)
(-0.000941197 0.000179389 0)
(-0.00298793 0.000327724 0)
(-0.00194105 0.000345101 0)
(-0.00452652 0.000862742 0)
(-0.00652988 0.000716215 0)
(-0.00552764 0.000982763 0)
(-0.00742273 0.00141475 0)
(-0.00907771 0.000995668 0)
(-0.00827269 0.00147081 0)
(-0.00918889 0.00175137 0)
(-0.0102435 0.00112354 0)
(-0.0097583 0.00173494 0)
(-0.00955613 0.00182137 0)
(-0.00984989 0.00108036 0)
(-0.0097583 0.00173494 0)
(-0.00846853 0.00161408 0)
(-0.00795668 0.00087271 0)
(-0.00827269 0.00147081 0)
(-0.00609168 0.00116106 0)
(-0.00485214 0.000532196 0)
(-0.00552764 0.000982763 0)
(-0.00278742 0.000531274 0)
(-0.0010089 0.000110659 0)
(-0.00194105 0.000345101 0)
(0.000941197 -0.000179389 0)
(0.00298793 -0.000327724 0)
(0.00194105 -0.000345101 0)
(0.00452652 -0.000862742 0)
(0.00652988 -0.000716215 0)
(0.00552764 -0.000982763 0)
(0.00742273 -0.00141475 0)
(0.00907771 -0.000995668 0)
(0.00827269 -0.00147081 0)
(0.00918889 -0.00175137 0)
(0.0102435 -0.00112354 0)
(0.0097583 -0.00173494 0)
(-0.00182137 -0.00955613 0)
(-0.00108036 -0.00984989 0)
(-0.00173494 -0.0097583 0)
(-0.00161408 -0.00846853 0)
(-0.00087271 -0.00795668 0)
(-0.00147081 -0.00827269 0)
(-0.00116106 -0.00609168 0)
(-0.000532196 -0.00485214 0)
(-0.000982763 -0.00552764 0)
(-0.000531274 -0.00278742 0)
(-0.000110659 -0.0010089 0)
(-0.000345101 -0.00194105 0)
(0.000179389 0.000941197 0)
(0.000327724 0.00298793 0)
(0.000345101 0.00194105 0)
(0.000862742 0.00452652 0)
(0.000716215 0.00652988 0)
(0.000982763 0.00552764 0)
(0.00141475 0.00742273 0)
(0.000995668 0.00907771 0)
(0.00147081 0.00827269 0)
(0.00175137 0.00918889 0)
(0.00112354 0.0102435 0)
(0.00173494 0.0097583 0)
(0.00182137 0.00955613 0)
(0.00108036 0.00984989 0)
(0.00173494 0.0097583 0)
(0.00161408 0.00846853 0)
(0.00087271 0.00795668 0)
(0.00147081 0.00827269 0)
(0.00116106 0.00609168 0)
(0.000532196 0.00485214 0)
(0.000982763 0.00552764 0)
(0.000531274 0.00278742 0)
(0.000110659 0.0010089 0)
(0.000345101 0.00194105 0)
(-0.000179389 -0.000941197 0)
(-0.000327724 -0.00298793 0)
(-0.000345101 -0.00194105 0)
(-0.000862742 -0.00452652 0)
(-0.000716215 -0.00652988 0)
(-0.000982763 -0.00552764 0)
(-0.00141475 -0.00742273 0)
(-0.000995668 -0.00907771 0)
(-0.00147081 -0.00827269 0)
(-0.00175137 -0.00918889 0)
(-0.00112354 -0.0102435 0)
(-0.00173494 -0.0097583 0)
(0.00946756 0.00187921 0)
(0.00940518 0.00178738 0)
(0.010032 0.00114708 0)
(0.00839005 0.00166534 0)
(0.00790676 0.000904079 0)
(0.008172 0.00155303 0)
(0.00603522 0.00119793 0)
(0.00482169 0.000551325 0)
(0.00546036 0.0010377 0)
(0.00276159 0.000548146 0)
(0.00100257 0.000114637 0)